LAMMPS data file via write_data, version 27 Jun 2024, timestep = 20000, units = real

10 atoms
10 atom types
9 bonds
9 bond types
14 angles
14 angle types
15 dihedrals
15 dihedral types
4 impropers
4 improper types

-2.00746 47.99254 xlo xhi
0.1121 50.1121 ylo yhi
-0.93269 49.06731 zlo zhi

Masses

1 15.999
2 12.011
3 12.011
4 15.999
5 1.008
6 1.008
7 1.008
8 1.008
9 1.008
10 1.008

Pair Coeffs # lj/cut/coul/long

1 0.17 3.12
2 0.066 3.5
3 0.066 3.5
4 0.17 3.12
5 0 0
6 0.03 2.5
7 0.03 2.5
8 0.03 2.5
9 0.03 2.5
10 0 0

Bond Coeffs # harmonic

1 320 1.41
2 268 1.529
3 320 1.41
4 553 0.945
5 340 1.09
6 340 1.09
7 340 1.09
8 340 1.09
9 553 0.945

Angle Coeffs # harmonic

1 50 109.5
2 50 109.5
3 55 108.5
4 35 109.5
5 35 109.5
6 37.5 110.7
7 37.5 110.7
8 55 108.5
9 35 109.5
10 33 107.8
11 37.5 110.7
12 37.5 110.7
13 35 109.5
14 33 107.8

Dihedral Coeffs # opls

1 9.508 0 0 0
2 -0.356 -0.174 0.492 0
3 -0.356 -0.174 0.492 0
4 0 0 0.352 0
5 0 0 0.468 0
6 0 0 0.468 0
7 0 0 0.468 0
8 0 0 0.352 0
9 0 0 0.468 0
10 0 0 0.3 0
11 0 0 0.352 0
12 0 0 0.3 0
13 0 0 0.3 0
14 0 0 0.352 0
15 0 0 0.3 0

Improper Coeffs # cvff

1 0 -1 2
2 0 -1 2
3 0 -1 2
4 0 -1 2

Atoms # full

1 1 1 -0.6041 -0.8521845079786564 2.660483908380195 1.853321227804607 0 0 0
2 1 2 -0.0428 0.16658265629600158 1.7987945873634783 1.3743225768268132 0 0 0
3 1 3 0.008200000000000001 -0.446694652217286 0.8364926994370702 0.3769149694674634 0 0 0
7 1 7 0.0859 0.6466944205431271 1.3336944460822877 2.212203677435739 0 0 0
8 1 8 0.1056 -0.9116388822997764 1.331940430095181 -0.4831915407724009 0 0 0
9 1 9 0.1056 -1.2515959169644353 0.24374405378649489 0.8104588911064547 0 0 0
6 1 6 0.0859 0.9049888735901357 2.428536390013906 0.9411621217051528 0 0 0
5 1 5 0.4173 -0.5211748001745251 3.1333459200290674 2.5828994198611657 0 0 0
4 1 4 -0.5868 0.5418431445026957 49.929189631079055 -0.09761186893493573 0 -1 0
10 1 10 0.4253 0.19819818751027837 49.3946610818483 -0.7045332251857346 0 -1 0

Velocities

1 0.0015860864186150326 0.000968402924351303 0.003701843542831318
2 -0.0007265466391362345 0.0014033749435887455 -0.0002777445921891697
3 -0.0002549061918371619 -0.0013949022899421763 -0.0009065512938586392
7 0.001103701346475819 0.01125308215278446 -0.005255704382912001
8 0.009868619091758015 -0.007345595095524209 -0.011859325728517013
9 -0.003933846534364562 -0.00843478355572173 0.0032762459999994727
6 0.008781744738168777 -0.009181465137832964 0.0041524225760779946
5 -0.018704209847251196 -0.030162584621448562 -0.056703870732766413
4 0.0005069987096992836 0.0018973218120399646 0.0028650647468536814
10 -0.018642833214506046 -0.0017144623736772607 -0.023728208048697946

Bonds

1 1 2 1
2 2 3 2
3 6 7 2
4 7 8 3
5 8 9 3
6 5 6 2
7 4 5 1
8 3 4 3
9 9 10 4

Angles

1 3 2 1 5
2 1 1 2 3
3 4 1 2 6
4 5 1 2 7
5 11 3 2 7
6 12 3 2 6
7 14 6 2 7
8 2 2 3 4
9 6 2 3 8
10 7 2 3 9
11 9 4 3 9
12 10 8 3 9
13 13 4 3 8
14 8 3 4 10

Dihedrals

1 2 5 1 2 3
2 5 6 2 3 4
3 9 7 2 3 4
4 11 7 2 1 5
5 14 6 2 1 5
6 1 4 3 2 1
7 6 8 3 2 1
8 7 9 3 2 1
9 10 9 3 2 7
10 12 9 3 2 6
11 13 8 3 2 7
12 15 8 3 2 6
13 3 10 4 3 2
14 4 10 4 3 9
15 8 10 4 3 8

Impropers

1 1 2 1 3 6
2 2 2 1 3 7
3 3 3 2 4 8
4 4 3 9 2 4
