LAMMPS data file Created by LigParGen - (Written by Leela S. Dodda)

      10 atoms
       9 bonds
      14 angles
      15 dihedrals
       4 impropers
 
      10 atom types
       9 bond types
      14 angle types
      15 dihedral types
       4 improper types
 
   -2.007460    47.992540 xlo xhi
    0.112100    50.112100 ylo yhi
   -0.932690    49.067310 zlo zhi

Masses

       1     15.999  
       2     12.011  
       3     12.011  
       4     15.999  
       5      1.008  
       6      1.008  
       7      1.008  
       8      1.008  
       9      1.008  
      10      1.008  

Pair Coeffs 

       1      0.170  3.1200000 
       2      0.066  3.5000000 
       3      0.066  3.5000000 
       4      0.170  3.1200000 
       5      0.000  0.0000000 
       6      0.030  2.5000000 
       7      0.030  2.5000000 
       8      0.030  2.5000000 
       9      0.030  2.5000000 
      10      0.000  0.0000000 

Bond Coeffs 

       1   320.0000     1.4100 
       2   268.0000     1.5290 
       3   320.0000     1.4100 
       4   553.0000     0.9450 
       5   340.0000     1.0900 
       6   340.0000     1.0900 
       7   340.0000     1.0900 
       8   340.0000     1.0900 
       9   553.0000     0.9450 

Angle Coeffs 

       1     50.000    109.500
       2     50.000    109.500
       3     55.000    108.500
       4     35.000    109.500
       5     35.000    109.500
       6     37.500    110.700
       7     37.500    110.700
       8     55.000    108.500
       9     35.000    109.500
      10     33.000    107.800
      11     37.500    110.700
      12     37.500    110.700
      13     35.000    109.500
      14     33.000    107.800

Dihedral Coeffs  

       1      9.508      0.000      0.000      0.000 
       2     -0.356     -0.174      0.492      0.000 
       3     -0.356     -0.174      0.492      0.000 
       4      0.000      0.000      0.352      0.000 
       5      0.000      0.000      0.468      0.000 
       6      0.000      0.000      0.468      0.000 
       7      0.000      0.000      0.468      0.000 
       8      0.000      0.000      0.352      0.000 
       9      0.000      0.000      0.468      0.000 
      10      0.000      0.000      0.300      0.000 
      11      0.000      0.000      0.352      0.000 
      12      0.000      0.000      0.300      0.000 
      13      0.000      0.000      0.300      0.000 
      14      0.000      0.000      0.352      0.000 
      15      0.000      0.000      0.300      0.000 

Improper Coeffs 

       1      0.000      -1       2 
       2      0.000      -1       2 
       3      0.000      -1       2 
       4      0.000      -1       2 

Atoms 

     1      1      1 -0.60410000    1.000  1.00000  0.00000
     2      1      2 -0.04280000   -0.429  1.00000  0.00000
     3      1      3 0.00820000   -0.915  1.00000  1.44402
     4      1      4 -0.58680000   -0.427  2.16294  2.11028
     5      1      5 0.41730000    1.279  1.00118 -0.93269
     6      1      6 0.08590000   -0.783  0.11210 -0.53102
     7      1      7 0.08590000   -0.760  1.90409 -0.51957
     8      1      8 0.10560000   -0.536  0.12666  1.98326
     9      1      9 0.10560000   -2.007  1.00600  1.48933
    10      1     10 0.42530000    0.529  2.18687  1.90264

Bonds 

     1      1      2      1
     2      2      3      2
     3      3      4      3
     4      4      5      1
     5      5      6      2
     6      6      7      2
     7      7      8      3
     8      8      9      3
     9      9     10      4

Angles 

     1      1      1      2      3
     2      2      2      3      4
     3      3      2      1      5
     4      4      1      2      6
     5      5      1      2      7
     6      6      2      3      8
     7      7      2      3      9
     8      8      3      4     10
     9      9      4      3      9
    10     10      8      3      9
    11     11      3      2      7
    12     12      3      2      6
    13     13      4      3      8
    14     14      6      2      7

Dihedrals

     1      1      4      3      2      1 
     2      2      5      1      2      3 
     3      3     10      4      3      2 
     4      4     10      4      3      9 
     5      5      6      2      3      4 
     6      6      8      3      2      1 
     7      7      9      3      2      1 
     8      8     10      4      3      8 
     9      9      7      2      3      4 
    10     10      9      3      2      7 
    11     11      7      2      1      5 
    12     12      9      3      2      6 
    13     13      8      3      2      7 
    14     14      6      2      1      5 
    15     15      8      3      2      6 

Impropers

     1      1      2      1      3      6 
     2      2      2      1      3      7 
     3      3      3      2      4      8 
     4      4      3      9      2      4 

