ITEM: TIMESTEP
0
ITEM: NUMBER OF ATOMS
10
ITEM: BOX BOUNDS pp pp pp
-2.0074600000000000e+00 4.7992539999999998e+01
1.1210000000000001e-01 5.0112099999999998e+01
-9.3269000000000002e-01 4.9067309999999999e+01
ITEM: ATOMS id type xs ys zs
1 1 0.0601492 0.017758 0.0186538
2 2 0.0315692 0.017758 0.0186538
3 3 0.0218492 0.017758 0.0475342
4 4 0.0316092 0.0410168 0.0608594
5 5 0.0657292 0.0177816 0
6 6 0.0244892 0 0.0080334
7 7 0.0249492 0.0358398 0.0082624
8 8 0.0294292 0.0002912 0.058319
9 9 9.2e-06 0.017878 0.0484404
10 10 0.0507292 0.0414954 0.0567066
ITEM: TIMESTEP
2000
ITEM: NUMBER OF ATOMS
10
ITEM: BOX BOUNDS pp pp pp
-2.0074600000000000e+00 4.7992539999999998e+01
1.1210000000000001e-01 5.0112099999999998e+01
-9.3269000000000002e-01 4.9067309999999999e+01
ITEM: ATOMS id type xs ys zs
1 1 0.0279562 0.00751784 0.0670786
2 2 0.0309514 0.0101296 0.0392405
3 3 0.0435158 0.0374354 0.0330703
4 4 0.0465122 0.0401535 0.00552441
8 8 0.0630174 0.0390305 0.042483
9 9 0.0309874 0.0534627 0.0403608
7 7 0.0112148 0.0093246 0.0298974
10 10 0.053232 0.0586666 0.00252826
6 6 0.0427619 0.993695 0.0311075
5 5 0.0177398 0.991769 0.0701066
ITEM: TIMESTEP
4000
ITEM: NUMBER OF ATOMS
10
ITEM: BOX BOUNDS pp pp pp
-2.0074600000000000e+00 4.7992539999999998e+01
1.1210000000000001e-01 5.0112099999999998e+01
-9.3269000000000002e-01 4.9067309999999999e+01
ITEM: ATOMS id type xs ys zs
1 1 0.032168 0.0103269 0.0691233
2 2 0.037582 0.00929172 0.0416773
3 3 0.0372697 0.0381796 0.0309003
4 4 0.0415857 0.0376184 0.00319084
8 8 0.0531479 0.0500426 0.0403032
9 9 0.0177165 0.0477699 0.033958
7 7 0.0224068 -0.00282075 0.03196
10 10 0.0419284 0.056064 0.997352
6 6 0.0568482 0.999707 0.038918
5 5 0.0336679 0.991953 0.0753978
ITEM: TIMESTEP
6000
ITEM: NUMBER OF ATOMS
10
ITEM: BOX BOUNDS pp pp pp
-2.0074600000000000e+00 4.7992539999999998e+01
1.1210000000000001e-01 5.0112099999999998e+01
-9.3269000000000002e-01 4.9067309999999999e+01
ITEM: ATOMS id type xs ys zs
1 1 0.0366507 0.0151557 0.0703949
2 2 0.0439009 0.0128352 0.0444019
3 3 0.0305103 0.0357573 0.0286177
4 4 0.036808 0.03151 0.00153452
8 8 0.0379921 0.0550173 0.0352314
9 9 0.00873428 0.0357794 0.0301848
6 6 0.0660831 0.0143708 0.0437186
10 10 0.0325943 0.0468155 0.99308
5 5 0.0509294 1.00453 0.0806865
7 7 0.0393122 0.993157 0.0358268
ITEM: TIMESTEP
8000
ITEM: NUMBER OF ATOMS
10
ITEM: BOX BOUNDS pp pp pp
-2.0074600000000000e+00 4.7992539999999998e+01
1.1210000000000001e-01 5.0112099999999998e+01
-9.3269000000000002e-01 4.9067309999999999e+01
ITEM: ATOMS id type xs ys zs
1 1 0.0400934 0.0199735 0.0711489
2 2 0.0473405 0.0178593 0.0451155
3 3 0.0268393 0.0311612 0.0275371
4 4 0.0340602 0.0267818 0.00104592
8 8 0.0260821 0.0527523 0.0323658
9 9 0.00661859 0.0240603 0.0315769
6 6 0.0675514 0.0249528 0.0422428
5 5 0.0535115 0.00800688 0.0813923
10 10 0.0254798 0.0368244 0.991916
7 7 0.0481282 0.996548 0.0393966
ITEM: TIMESTEP
10000
ITEM: NUMBER OF ATOMS
10
ITEM: BOX BOUNDS pp pp pp
-2.0074600000000000e+00 4.7992539999999998e+01
1.1210000000000001e-01 5.0112099999999998e+01
-9.3269000000000002e-01 4.9067309999999999e+01
ITEM: ATOMS id type xs ys zs
1 1 0.0425995 0.0268151 0.0718343
2 2 0.0495825 0.0222254 0.0448799
3 3 0.0253205 0.0258975 0.0273683
4 4 0.0314407 0.0211432 0.000581229
8 8 0.0173934 0.0463319 0.0292075
9 9 0.00873565 0.0127674 0.0332742
6 6 0.0664606 0.0350337 0.039708
5 5 0.055532 0.0175509 0.0825766
7 7 0.0559712 0.00152733 0.0435553
10 10 0.016462 0.0215357 0.991883
ITEM: TIMESTEP
12000
ITEM: NUMBER OF ATOMS
10
ITEM: BOX BOUNDS pp pp pp
-2.0074600000000000e+00 4.7992539999999998e+01
1.1210000000000001e-01 5.0112099999999998e+01
-9.3269000000000002e-01 4.9067309999999999e+01
ITEM: ATOMS id type xs ys zs
1 1 0.0422033 0.034047 0.0706051
2 2 0.0499303 0.0261161 0.0444897
3 3 0.0248192 0.0219602 0.027678
4 4 0.0318527 0.0131975 0.00209566
8 8 0.0132728 0.0400014 0.0255025
9 9 0.0114816 0.00673167 0.0356224
6 6 0.0621501 0.0427365 0.0367184
5 5 0.057033 0.0363483 0.0805519
7 7 0.0621176 0.0079326 0.0457348
10 10 0.0160788 0.0128808 0.992507
ITEM: TIMESTEP
14000
ITEM: NUMBER OF ATOMS
10
ITEM: BOX BOUNDS pp pp pp
-2.0074600000000000e+00 4.7992539999999998e+01
1.1210000000000001e-01 5.0112099999999998e+01
-9.3269000000000002e-01 4.9067309999999999e+01
ITEM: ATOMS id type xs ys zs
1 1 0.0376623 0.0407456 0.0679374
2 2 0.0483811 0.0292044 0.0445935
3 3 0.025664 0.01905 0.0272414
4 4 0.0370325 0.00623418 0.0053985
8 8 0.0115913 0.034752 0.0204248
9 9 0.0130558 0.0040745 0.0370022
6 6 0.0604249 0.0441837 0.0348843
5 5 0.0501382 0.0484144 0.0762152
7 7 0.0623633 0.0134488 0.0498079
10 10 0.0228155 0.00383671 0.992188
ITEM: TIMESTEP
16000
ITEM: NUMBER OF ATOMS
10
ITEM: BOX BOUNDS pp pp pp
-2.0074600000000000e+00 4.7992539999999998e+01
1.1210000000000001e-01 5.0112099999999998e+01
-9.3269000000000002e-01 4.9067309999999999e+01
ITEM: ATOMS id type xs ys zs
1 1 0.0319708 0.0448496 0.0644328
2 2 0.0461439 0.0304437 0.0456198
3 3 0.0274796 0.0178715 0.0262813
4 4 0.0430588 0.00217285 0.00897579
8 8 0.0173367 0.0329326 0.0144016
9 9 0.0111721 0.00654908 0.0346727
6 6 0.061101 0.0428012 0.036252
5 5 0.0411657 0.0541881 0.0728393
7 7 0.0583912 0.015789 0.0559974
10 10 0.0309318 0.99505 0.994417
ITEM: TIMESTEP
18000
ITEM: NUMBER OF ATOMS
10
ITEM: BOX BOUNDS pp pp pp
-2.0074600000000000e+00 4.7992539999999998e+01
1.1210000000000001e-01 5.0112099999999998e+01
-9.3269000000000002e-01 4.9067309999999999e+01
ITEM: ATOMS id type xs ys zs
1 1 0.0272904 0.0479035 0.0610865
2 2 0.0447066 0.031687 0.0465275
3 3 0.0296419 0.0172079 0.0254718
4 4 0.0470993 -0.00134287 0.0118722
8 8 0.0223174 0.0306361 0.0107766
9 9 0.0127617 0.00648795 0.0334698
6 6 0.0619217 0.0432407 0.039753
5 5 0.0351717 0.0596513 0.0702995
7 7 0.0527318 0.0183852 0.0612258
10 10 0.0367107 0.989329 0.999025
ITEM: TIMESTEP
20000
ITEM: NUMBER OF ATOMS
10
ITEM: BOX BOUNDS pp pp pp
-2.0074600000000000e+00 4.7992539999999998e+01
1.1210000000000001e-01 5.0112099999999998e+01
-9.3269000000000002e-01 4.9067309999999999e+01
ITEM: ATOMS id type xs ys zs
1 1 0.0231055 0.0509677 0.0557202
2 2 0.0434809 0.0337339 0.0461403
3 3 0.0312153 0.0144879 0.0261921
7 7 0.0530831 0.0244319 0.0628979
8 8 0.0219164 0.0243968 0.00898997
9 9 0.0151173 0.00263288 0.034863
6 6 0.058249 0.0463287 0.037477
5 5 0.0297257 0.0604249 0.0703118
4 4 0.0509861 0.996342 0.0167016
10 10 0.0441132 0.985651 0.00456314
